# Sigma = 0.100000
        0.0000000000       43.4965630015
        0.0100000000       47.5233323313
        0.0200000000       51.5991921981
        0.0300000000       55.6874778716
        0.0400000000       59.7515928320
        0.0500000000       63.7560350645
        0.0600000000       67.6673617203
        0.0700000000       71.4550493264
        0.0800000000       75.0922142231
        0.0900000000       78.5561672900
        0.1000000000       81.8287874394
        0.1100000000       84.8967089052
        0.1200000000       87.7513272522
        0.1300000000       90.3886375892
        0.1400000000       92.8089252766
        0.1500000000       95.0163342554
        0.1600000000       97.0183410359
        0.1700000000       98.8251635710
        0.1800000000      100.4491340459
        0.1900000000      101.9040634100
        0.2000000000      103.2046236092
        0.2100000000      104.3657711776
        0.2200000000      105.4022332541
        0.2300000000      106.3280741740
        0.2400000000      107.1563574279
        0.2500000000      107.8989138242
        0.2600000000      108.5662219581
        0.2700000000      109.1674015369
        0.2800000000      109.7103137965
        0.2900000000      110.2017564423
        0.3000000000      110.6477337019
        0.3100000000      111.0537757885
        0.3200000000      111.4252770438
        0.3300000000      111.7678189439
        0.3400000000      112.0874436228
        0.3500000000      112.3908459813
        0.3600000000      112.6854579403
        0.3700000000      112.9794067595
        0.3800000000      113.2813400316
        0.3900000000      113.6001221443
        0.4000000000      113.9444196050
        0.4100000000      114.3222044562
        0.4200000000      114.7402148956
        0.4300000000      115.2034190941
        0.4400000000      115.7145312960
        0.4500000000      116.2736281107
        0.4600000000      116.8779074207
        0.4700000000      117.5216228519
        0.4800000000      118.1962140056
        0.4900000000      118.8906376285
        0.5000000000      119.5918888214
        0.5100000000      120.2856855788
        0.5200000000      120.9572756965
        0.5300000000      121.5923135907
        0.5400000000      122.1777468044
        0.5500000000      122.7026486621
        0.5600000000      123.1589350528
        0.5700000000      123.5419097208
        0.5800000000      123.8505934161
        0.5900000000      124.0878071283
        0.6000000000      124.2599974249
        0.6100000000      124.3768113768
        0.6200000000      124.4504482079
        0.6300000000      124.4948330861
        0.6400000000      124.5246737872
        0.6500000000      124.5544718874
        0.6600000000      124.5975654925
        0.6700000000      124.6652795614
        0.6800000000      124.7662523925
        0.6900000000      124.9059932011
        0.7000000000      125.0867069087
        0.7100000000      125.3073998341
        0.7200000000      125.5642559050
        0.7300000000      125.8512495130
        0.7400000000      126.1609404483
        0.7500000000      126.4853804836
        0.7600000000      126.8170516666
        0.7700000000      127.1497541279
        0.7800000000      127.4793663636
        0.7900000000      127.8044128883
        0.8000000000      128.1263915569
        0.8100000000      128.4498338909
        0.8200000000      128.7820942662
        0.8300000000      129.1328856588
        0.8400000000      129.5135988210
        0.8500000000      129.9364567496
        0.8600000000      130.4135661334
        0.8700000000      130.9559318118
        0.8800000000      131.5724993986
        0.8900000000      132.2692859168
        0.9000000000      133.0486496338
        0.9100000000      133.9087395350
        0.9200000000      134.8431532088
        0.9300000000      135.8408203197
        0.9400000000      136.8861179946
        0.9500000000      137.9592146741
        0.9600000000      139.0366303283
        0.9700000000      140.0919932206
        0.9800000000      141.0969663540
        0.9900000000      142.0223101174
        1.0000000000      142.8390413788
        1.0100000000      143.5196434620
        1.0200000000      144.0392764673
        1.0300000000      144.3769337914
        1.0400000000      144.5164891275
        1.0500000000      144.4475793373
        1.0600000000      144.1662728686
        1.0700000000      143.6754811071
        1.0800000000      142.9850810983
        1.0900000000      142.1117320004
        1.1000000000      141.0783836198
        1.1100000000      139.9134923613
        1.1200000000      138.6499766531
        1.1300000000      137.3239591233
        1.1400000000      135.9733553564
        1.1500000000      134.6363780361
        1.1600000000      133.3500300721
        1.1700000000      132.1486606745
        1.1800000000      131.0626543830
        1.1900000000      130.1173151920
        1.2000000000      129.3319967983
        1.2100000000      128.7195164414
        1.2200000000      128.2858747072
        1.2300000000      128.0302879106
        1.2400000000      127.9455241111
        1.2500000000      128.0185192217
        1.2600000000      128.2312366977
        1.2700000000      128.5617235163
        1.2800000000      128.9853070150
        1.2900000000      129.4758719840
        1.3000000000      130.0071554047
        1.3100000000      130.5539974337
        1.3200000000      131.0934915492
        1.3300000000      131.6059838943
        1.3400000000      132.0758813282
        1.3500000000      132.4922388981
        1.3600000000      132.8491096630
        1.3700000000      133.1456522468
        1.3800000000      133.3860034188
        1.3900000000      133.5789337078
        1.4000000000      133.7373130139
        1.4100000000      133.8774200248
        1.4200000000      134.0181338045
        1.4300000000      134.1800482007
        1.4400000000      134.3845498836
        1.4500000000      134.6528991169
        1.4600000000      135.0053491045
        1.4700000000      135.4603352464
        1.4800000000      136.0337602013
        1.4900000000      136.7383945581
        1.5000000000      137.5834064581
        1.5100000000      138.5740269474
        1.5200000000      139.7113515089
        1.5300000000      140.9922724606
        1.5400000000      142.4095320744
        1.5500000000      143.9518827406
        1.5600000000      145.6043385276
        1.5700000000      147.3485022359
        1.5800000000      149.1629534478
        1.5900000000      151.0236858510
        1.6000000000      152.9045857417
        1.6100000000      154.7779473779
        1.6200000000      156.6150239456
        1.6300000000      158.3866145308
        1.6400000000      160.0636870399
        1.6500000000      161.6180341696
        1.6600000000      163.0229543672
        1.6700000000      164.2539427948
        1.6800000000      165.2893695421
        1.6900000000      166.1111149911
        1.7000000000      166.7051267101
        1.7100000000      167.0618598633
        1.7200000000      167.1765649015
        1.7300000000      167.0493927690
        1.7400000000      166.6852989577
        1.7500000000      166.0937426813
        1.7600000000      165.2881948601
        1.7700000000      164.2854866334
        1.7800000000      163.1050466394
        1.7900000000      161.7680882136
        1.8000000000      160.2968151622
        1.8100000000      158.7137155975
        1.8200000000      157.0410069473
        1.8300000000      155.3002819668
        1.8400000000      153.5123864616
        1.8500000000      151.6975362753
        1.8600000000      149.8756561567
        1.8700000000      148.0668989086
        1.8800000000      146.2922821821
        1.8900000000      144.5743645562
        1.9000000000      142.9378737423
        1.9100000000      141.4101988005
        1.9200000000      140.0216653339
        1.9300000000      138.8055271792
        1.9400000000      137.7976289404
        1.9500000000      137.0357191130
        1.9600000000      136.5584215002
        1.9700000000      136.4039009431
        1.9800000000      136.6082859579
        1.9900000000      137.2039337153
        2.0000000000      138.2176402677
        2.0100000000      139.6689097402
        2.0200000000      141.5683995168
        2.0300000000      143.9166538803
        2.0400000000      146.7032262225
        2.0500000000      149.9062703790
        2.0600000000      153.4926559212
        2.0700000000      157.4186318033
        2.0800000000      161.6310294743
        2.0900000000      166.0689625593
        2.1000000000      170.6659478202
        2.1100000000      175.3523436712
        2.1200000000      180.0579802719
        2.1300000000      184.7148410120
        2.1400000000      189.2596503941
        2.1500000000      193.6362285629
        2.1600000000      197.7974878798
        2.1700000000      201.7069709910
        2.1800000000      206.3310716073
        2.1900000000      211.5103208788
        2.2000000000      217.3315190109
        2.2100000000      223.8550653868
        2.2200000000      231.1303307101
        2.2300000000      239.1936988141
        2.2400000000      248.0668980315
        2.2500000000      257.7556702587
        2.2600000000      268.2488228565
        2.2700000000      279.5177039907
        2.2800000000      291.5161349581
        2.2900000000      304.1808228611
        2.3000000000      317.4322635033
        2.3100000000      331.1761279607
        2.3200000000      345.3051078244
        2.3300000000      359.7011748847
        2.3400000000      374.2381925541
        2.3500000000      388.7848001244
        2.3600000000      403.2074783661
        2.3700000000      417.3736969871
        2.3800000000      431.1550415909
        2.3900000000      444.4302200260
        2.4000000000      457.0878549631
        2.4100000000      469.0289803634
        2.4200000000      480.1691731807
        2.4300000000      490.4402670615
        2.4400000000      499.7916108981
        2.4500000000      508.1908509436
        2.4600000000      515.6242300984
        2.4700000000      522.0964114457
        2.4800000000      527.6298448642
        2.4900000000      532.2637054837
        2.5000000000      536.0524408974
        2.5100000000      539.0639705384
        2.5200000000      541.3775856796
        2.5300000000      543.0816023934
        2.5400000000      544.2708228417
        2.5500000000      545.0438628067
        2.5600000000      545.5004057730
        2.5700000000      545.7384464057
        2.5800000000      545.8515890945
        2.5900000000      545.9264702733
        2.6000000000      546.0403761498
        2.6100000000      546.2591296323
        2.6200000000      546.6353207220
        2.6300000000      547.2069523129
        2.6400000000      547.9965670932
        2.6500000000      549.0109100450
        2.6600000000      550.2411643035
        2.6700000000      551.6637757928
        2.6800000000      553.2418547910
        2.6900000000      554.9271118239
        2.7000000000      556.6622532186
        2.7100000000      558.3837309720
        2.7200000000      560.0247152831
        2.7300000000      561.5181390552
        2.7400000000      562.7996543290
        2.7500000000      563.8103425822
        2.7600000000      564.4990346772
        2.7700000000      564.8241212884
        2.7800000000      564.7547690445
        2.7900000000      564.2714984824
        2.8000000000      563.3661236440
        2.8100000000      562.0410958463
        2.8200000000      560.3083320627
        2.8300000000      558.1876382914
        2.8400000000      555.7048579918
        2.8500000000      552.8898840362
        2.8600000000      549.7746697593
        2.8700000000      546.3913618375
        2.8800000000      542.7706570375
        2.8900000000      538.9404590753
        2.9000000000      534.9248838478
        2.9100000000      530.7436339099
        2.9200000000      526.4117385560
        2.9300000000      521.9396358047
        2.9400000000      517.3335577885
        2.9500000000      512.5961715224
        2.9600000000      507.7274221696
        2.9700000000      502.7255246874
        2.9800000000      497.5880508948
        2.9900000000      492.3130613883
        3.0000000000      486.9002344108
        3.0100000000      481.3519462070
        3.0200000000      475.6742594485
        3.0300000000      469.8777782370
        3.0400000000      463.9783305213
        3.0500000000      457.9974421530
        3.0600000000      451.9625718755
        3.0700000000      445.9070837191
        3.0800000000      439.8699427011
        3.0900000000      433.8951311834
        3.1000000000      428.0307961513
        3.1100000000      422.3281512056
        3.1200000000      416.8401701700
        3.1300000000      411.6201208408
        3.1400000000      406.7199965825
        3.1500000000      402.1889094259
        3.1600000000      398.0715106188
        3.1700000000      394.4065030946
        3.1800000000      391.2253053039
        3.1900000000      388.5509178320
        3.2000000000      386.3970339500
        3.2100000000      384.7674235916
        3.2200000000      383.6556080953
        3.2300000000      383.0448312178
        3.2400000000      382.9083210824
        3.2500000000      383.2098283521
        3.2600000000      383.9044183177
        3.2700000000      384.9394888541
        3.2800000000      386.2559822852
        3.2900000000      387.7897569238
        3.3000000000      389.4730831538
        3.3100000000      391.2362290818
        3.3200000000      393.0091016298
        3.3300000000      394.7229100982
        3.3400000000      396.3118203149
        3.3500000000      397.7145681366
        3.3600000000      398.8760010026
        3.3700000000      399.7485152515
        3.3800000000      400.2933549908
        3.3900000000      400.4817356450
        3.4000000000      400.2957523393
        3.4100000000      399.7290307104
        3.4200000000      398.7870764918
        3.4300000000      397.4872813464
        3.4400000000      395.8585469767
        3.4500000000      393.9404984196
        3.4600000000      391.7822711831
        3.4700000000      389.4408755602
        3.4800000000      386.9791644928
        3.4900000000      384.4634575278
        3.5000000000      381.9609008572
        3.5100000000      379.5366698118
        3.5200000000      377.2511428638
        3.5300000000      375.1571925561
        3.5400000000      373.2977464803
        3.5500000000      371.7037687323
        3.5600000000      370.3927982632
        3.5700000000      369.3681553100
        3.5800000000      368.6188917567
        3.5900000000      368.1205180020
        3.6000000000      367.8364906758
        3.6100000000      367.7203959419
        3.6200000000      367.7187160348
        3.6300000000      367.7740258932
        3.6400000000      367.8284356941
        3.6500000000      367.8270764051
        3.6600000000      367.7214208721
        3.6700000000      367.4722429595
        3.6800000000      367.0520412133
        3.6900000000      366.4467895455
        3.7000000000      365.6569226956
        3.7100000000      364.6975150548
        3.7200000000      363.5976637602
        3.7300000000      362.3991366308
        3.7400000000      361.1543886932
        3.7500000000      359.9240845879
        3.7600000000      358.7742858969
        3.7700000000      357.7734713832
        3.7800000000      356.9895545236
        3.7900000000      356.4870479253
        3.8000000000      356.3245005881
        3.8100000000      356.5523044867
        3.8200000000      357.2109348450
        3.8300000000      358.3296569034
        3.8400000000      359.9257035962
        3.8500000000      362.0039053035
        3.8600000000      364.5567357686
        3.8700000000      367.5647275262
        3.8800000000      370.9972051208
        3.8900000000      372.1249739410
        3.9000000000      373.9897388094
        3.9100000000      376.2560462168
        3.9200000000      378.8850425394
        3.9300000000      381.8173893417
        3.9400000000      384.9757726270
        3.9500000000      388.2683664517
        3.9600000000      391.5930755016
        3.9700000000      394.8423396251
        3.9800000000      397.9082541042
        3.9900000000      400.6877442764
        4.0000000000      403.0875326458
        4.0100000000      405.0286504643
        4.0200000000      406.4502725784
        4.0300000000      407.3126919866
        4.0400000000      407.5992963116
        4.0500000000      407.3174592573
        4.0600000000      406.4983130416
        4.0700000000      405.1954199648
        4.0800000000      403.4824102856
        4.0900000000      401.4496975746
        4.1000000000      399.2004203937
        4.1100000000      396.8457897423
        4.1200000000      394.5000448650
        4.1300000000      392.2752356249
        4.1400000000      390.2760577566
        4.1500000000      388.5949679003
        4.1600000000      387.3077982833
        4.1700000000      386.4700760021
        4.1800000000      386.1142287582
        4.1900000000      386.2478273361
        4.2000000000      386.8529750784
        4.2100000000      387.8869065253
        4.2200000000      389.2838023386
        4.2300000000      390.9577675025
        4.2400000000      392.8068573346
        4.2500000000      394.7179745925
        4.2600000000      396.5724050914
        4.2700000000      398.2517132016
        4.2800000000      399.6436867073
        4.2900000000      400.6480065015
        4.3000000000      401.1813230969
        4.3100000000      401.1814500882
        4.3200000000      400.6104338152
        4.3300000000      399.4563259619
        4.3400000000      397.7335672348
        4.3500000000      395.4819796338
        4.3600000000      392.7644551771
        4.3700000000      389.6635129011
        4.3800000000      386.2769665386
        4.3900000000      382.7129965771
        4.4000000000      379.0849482383
        4.4100000000      375.5061792972
        4.4200000000      372.0852590114
        4.4300000000      368.9217745314
        4.4400000000      366.1029388926
        4.4500000000      363.7011214229
        4.4600000000      361.7723443555
        4.4700000000      360.3557158528
        4.4800000000      359.4737060145
        4.4900000000      359.1331238260
        4.5000000000      359.3266225815
        4.5100000000      360.0345500882
        4.5200000000      361.2269668385
        4.5300000000      362.8656773580
        4.5400000000      364.9061527839
        4.5500000000      367.2992613425
        4.5600000000      369.9927626337
        4.5700000000      372.9325569385
        4.5800000000      376.0637086409
        4.5900000000      379.3312812328
        4.6000000000      382.6810297076
        4.6100000000      386.0599953433
        4.6200000000      389.4170399845
        4.6300000000      392.7033447421
        4.6400000000      395.8728845632
        4.6500000000      398.8828781736
        4.6600000000      401.6942045985
        4.6700000000      404.2717740300
        4.6800000000      406.5848424053
        4.6900000000      408.6072648542
        4.7000000000      410.3176915463
        4.7100000000      411.6997183337
        4.7200000000      412.7420117204
        4.7300000000      413.4384311949
        4.7400000000      413.7881704830
        4.7500000000      413.7959323285
        4.7600000000      413.4721393953
        4.7700000000      412.8331681234
        4.7800000000      411.9015749030
        4.7900000000      410.7062672469
        4.8000000000      409.2825593918
        4.8100000000      407.6720443429
        4.8200000000      405.9222146750
        4.8300000000      404.0857734657
        4.8400000000      402.2195946262
        4.8500000000      400.3833176392
        4.8600000000      398.6375933468
        4.8700000000      397.0420321656
        4.8800000000      395.6529406235
        4.8900000000      394.5209628526
        4.9000000000      393.6887672337
        4.9100000000      393.1889318564
        4.9200000000      393.0421837370
        4.9300000000      393.2561347931
        4.9400000000      393.8246325612
        4.9500000000      394.7278069865
        4.9600000000      395.9328488565
        4.9700000000      397.3955041251
        4.9800000000      399.0622156596
        4.9900000000      400.8727943156
        5.0000000000      402.7634590634
        5.0100000000      404.6700549915
        5.0200000000      406.5312413266
        5.0300000000      408.2914408782
        5.0400000000      409.9033578983
        5.0500000000      411.3299021619
        5.0600000000      412.5454007035
        5.0700000000      413.5360315187
        5.0800000000      414.2994713092
        5.0900000000      414.8438072439
        5.1000000000      415.1858160324
        5.1100000000      415.3487581023
        5.1200000000      415.3598669516
        5.1300000000      415.2477315086
        5.1400000000      415.0397715551
        5.1500000000      414.7599932253
        5.1600000000      414.4271847512
        5.1700000000      414.0536744842
        5.1800000000      413.6447270337
        5.1900000000      413.1986028447
        5.2000000000      412.7072555680
        5.2100000000      412.1575939265
        5.2200000000      411.5331938273
        5.2300000000      410.8163150352
        5.2400000000      409.9900568675
        5.2500000000      409.0404803279
        5.2600000000      407.9585301471
        5.2700000000      406.7416087214
        5.2800000000      405.3946833614
        5.2900000000      403.9308462265
        5.3000000000      402.3712897597
        5.3100000000      400.7447058527
        5.3200000000      399.0861606479
        5.3300000000      397.4355352323
        5.3400000000      395.8356523500
        5.3500000000      394.3302282454
        5.3600000000      392.9617954521
        5.3700000000      391.7697365391
        5.3800000000      390.7885514906
        5.3900000000      390.0464546782
        5.4000000000      389.5643643015
        5.4100000000      389.3553113827
        5.4200000000      389.4242607004
        5.4300000000      389.7683059966
        5.4400000000      390.3771792706
        5.4500000000      391.2340008482
        5.4600000000      392.3161938230
        5.4700000000      393.5964927709
        5.4800000000      395.0439905017
        5.4900000000      396.6251852738
        5.5000000000      398.3050110660
        5.5100000000      400.0478517462
        5.5200000000      401.8185532743
        5.5300000000      403.5834541470
        5.5400000000      405.3114519673
        5.5500000000      406.9751133888
        5.5600000000      408.5518170845
        5.5700000000      410.0248972819
        5.5800000000      411.3847320084
        5.5900000000      412.6296991191
        5.6000000000      413.7669079426
        5.6100000000      414.8126079404
        5.6200000000      415.7921801613
        5.6300000000      416.7396332973
        5.6400000000      417.6965532888
        5.6500000000      418.7104918377
        5.6600000000      419.8328219134
        5.6700000000      421.1161335784
        5.6800000000      422.6112870060
        5.6900000000      424.3642772012
        5.7000000000      426.4130928851
        5.7100000000      428.7847673029
        5.7200000000      431.4928194672
        5.7300000000      434.5352699507
        5.7400000000      437.8933864715
        5.7500000000      441.5312731024
        5.7600000000      445.3963659680
        5.7700000000      449.4208415408
        5.7800000000      453.5238853551
        5.7900000000      457.6147134775
        5.8000000000      461.5961905248
        5.8100000000      465.3688499521
        5.8200000000      468.8350974720
        5.8300000000      471.9033684638
        5.8400000000      474.4920156302
        5.8500000000      476.5327232512
        5.8600000000      477.9732773918
        5.8700000000      478.7795645615
        5.8800000000      478.9367211004
        5.8900000000      478.4494080541
        5.9000000000      477.3412374656
        5.9100000000      475.6534221050
        5.9200000000      473.4427585053
        5.9300000000      470.7790804808
        5.9400000000      467.7423358556
        5.9500000000      464.4194428637
        5.9600000000      460.9010756686
        5.9700000000      457.2785127460
        5.9800000000      453.6406602337
        5.9900000000      450.0713379002
        6.0000000000      446.6468912087
        6.0100000000      443.4341717126
        6.0200000000      440.4889116093
        6.0300000000      437.8545075983
        6.0400000000      435.5612240294
        6.0500000000      433.6258244321
        6.0600000000      432.0516418048
        6.0700000000      430.8290989102
        6.0800000000      429.9366876208
        6.0900000000      429.3424087773
        6.1000000000      429.0056595981
        6.1100000000      428.8795340043
        6.1200000000      428.9134732510
        6.1300000000      429.0561721531
        6.1400000000      429.2586132967
        6.1500000000      429.4770719446
        6.1600000000      429.6759122041
        6.1700000000      429.8299844139
        6.1800000000      429.9264378101
        6.1900000000      429.9657832098
        6.2000000000      429.9620779214
        6.2100000000      429.9421577827
        6.2200000000      429.9439058027
        6.2300000000      430.0136185109
        6.2400000000      430.2026038900
        6.2500000000      430.5632122487
        6.2600000000      431.1445572654
        6.2700000000      431.9882231042
        6.2800000000      433.1242706975
        6.2900000000      434.5678494564
        6.3000000000      436.3166893184
        6.3100000000      438.3496937695
        6.3200000000      440.6267809257
        6.3300000000      443.0900322774
        6.3400000000      445.6661139350
        6.3500000000      448.2698405492
        6.3600000000      450.8086650261
        6.3700000000      453.1878047315
        6.3800000000      455.3156630222
        6.3900000000      457.1091780445
        6.4000000000      458.4987312322
        6.4100000000      459.4322761281
        6.4200000000      459.8784021082
        6.4300000000      459.8281233320
        6.4400000000      459.2952749719
        6.4500000000      458.3154993622
        6.4600000000      456.9439062460
        6.4700000000      455.2515857426
        6.4800000000      453.3212325306
        6.4900000000      451.2421987714
        6.5000000000      449.1053269761
        6.5100000000      446.9979200393
        6.5200000000      444.9991840988
        6.5300000000      443.1764332016
        6.5400000000      441.5822775627
        6.5500000000      440.2529357516
        6.5600000000      439.2077227458
        6.5700000000      438.4496780333
        6.5800000000      437.9672180123
        6.5900000000      437.7366308615
        6.6000000000      437.7251842629
        6.6100000000      437.8945893228
        6.6200000000      438.2045581819
        6.6300000000      438.6162066717
        6.6400000000      439.0950839473
        6.6500000000      439.6136541853
        6.6600000000      440.1531065247
        6.6700000000      440.7044237272
        6.6800000000      441.2686932569
        6.6900000000      441.8566930602
        6.7000000000      442.4878256317
        6.7100000000      443.1885063225
        6.7200000000      443.9901345250
        6.7300000000      444.9267893799
        6.7400000000      446.0327955703
        6.7500000000      447.3403005955
        6.7600000000      448.8769938643
        6.7700000000      450.6640813376
        6.7800000000      452.7146086689
        6.7900000000      455.0322021872
        6.8000000000      457.6102719944
        6.8100000000      460.4316962184
        6.8200000000      463.4689813159
        6.8300000000      466.6848713995
        6.8400000000      470.0333608574
        6.8500000000      473.4610497988
        6.8600000000      476.9087715523
        6.8700000000      480.3134157204
        6.8800000000      483.6098689360
        6.8900000000      486.7329979645
        6.9000000000      489.6196053893
        6.9100000000      492.2102958984
        6.9200000000      494.4512002393
        6.9300000000      496.2955133941
        6.9400000000      497.7048128206
        6.9500000000      498.6501313465
        6.9600000000      499.1127673899
        6.9700000000      499.0848227547
        6.9800000000      498.5694655770
        6.9900000000      497.5809233544
        7.0000000000      496.1442185370
        7.0100000000      494.2946667937
        7.0200000000      492.0771653991
        7.0300000000      489.5453054981
        7.0400000000      486.7603463623
        7.0500000000      483.7900911364
        7.0600000000      480.7077011069
        7.0700000000      477.5904787261
        7.0800000000      474.5186385731
        7.0900000000      471.5740709949
        7.1000000000      468.8390869813
        7.1100000000      466.3951172236
        7.1200000000      464.3213261197
        7.1300000000      462.6930956057
        7.1400000000      461.5803366943
        7.1500000000      461.0456001960
        7.1600000000      461.1419827444
        7.1700000000      461.9108588253
        7.1800000000      463.3795112019
        7.1900000000      465.5587765608
        7.2000000000      468.4408648151
        7.2100000000      471.9975431517
        7.2200000000      476.1788936609
        7.2300000000      480.9128513301
        7.2400000000      486.1057042523
        7.2500000000      491.6436894828
        7.2600000000      497.3957482782
        7.2700000000      503.2174185006
        7.2800000000      508.9557472283
        7.2900000000      514.4550122845
        7.3000000000      519.5629573754